 variables=x,y,k
 zone i=         369  j=         121
   0.0000000000000000       -3000.0000000000000        3380.0000000000000     
   25.000000000000000       -3000.0000000000000        3380.0100273902926     
   50.000000000000000       -3000.0000000000000        3453.9109462174820     
   75.000000000000000       -3000.0000000000000        3749.8322695639799     
   100.00000000000000       -3000.0000000000000        3450.0000000000000     
   125.00000000000000       -3000.0000000000000        3450.0010575799533     
   150.00000000000000       -3000.0000000000000        3450.0003229040472     
   175.00000000000000       -3000.0000000000000        3450.8422063384241     
   200.00000000000000       -3000.0000000000000        3120.0000000000000     
   225.00000000000000       -3000.0000000000000        3119.9996888642395     
   250.00000000000000       -3000.0000000000000        3120.0028445782787     
   275.00000000000000       -3000.0000000000000        3127.4289273095428     
   300.00000000000000       -3000.0000000000000        3900.0000000000000     
   325.00000000000000       -3000.0000000000000        3800.0681869877280     
   350.00000000000000       -3000.0000000000000        3800.0000262043177     
   375.00000000000000       -3000.0000000000000        3800.0002455849481     
   400.00000000000000       -3000.0000000000000        3800.0000000000000     
   425.00000000000000       -3000.0000000000000        3539.3364434910022     
   450.00000000000000       -3000.0000000000000        3539.9997459097194     
   475.00000000000000       -3000.0000000000000        3539.9999997410941     
   500.00000000000000       -3000.0000000000000        3539.9999999999995     
   525.00000000000000       -3000.0000000000000        3543.1393821528168     
   550.00000000000000       -3000.0000000000000        3380.1132067411472     
   575.00000000000000       -3000.0000000000000        3380.0000223519942     
   600.00000000000000       -3000.0000000000000        3380.0000000000000     
   625.00000000000000       -3000.0000000000000        3380.0000000000036     
   650.00000000000000       -3000.0000000000000        3380.0000000269970     
   675.00000000000011       -3000.0000000000000        3380.0000705012512     
   700.00000000000000       -3000.0000000000000        3379.9999999999995     
   725.00000000000000       -3000.0000000000000        3399.9863231207119     
   750.00000000000000       -3000.0000000000000        3399.9999947498391     
   775.00000000000000       -3000.0000000000000        3399.9999660840604     
   800.00000000000000       -3000.0000000000000        3400.0000000000005     
   825.00000000000000       -3000.0000000000000        3917.8866059857828     
   850.00000000000000       -3000.0000000000000        4211.0403797198360     
   875.00000000000000       -3000.0000000000000        4200.0025323631016     
   900.00000000000000       -3000.0000000000000        4200.0000000000000     
   925.00000000000000       -3000.0000000000000        4299.9316156034265     
   950.00000000000000       -3000.0000000000000        4299.9999738142624     
   975.00000000000000       -3000.0000000000000        4300.0000003444011     
   1000.0000000000000       -3000.0000000000000        4300.0000000000000     
   1025.0000000000000       -3000.0000000000000        4294.7425317963780     
   1050.0000000000000       -3000.0000000000000        3297.3594168142067     
   1075.0000000000000       -3000.0000000000000        3299.9994785022004     
   1100.0000000000000       -3000.0000000000000        3300.0000000000005     
   1125.0000000000000       -3000.0000000000000        3301.9621138455454     
   1150.0000000000000       -3000.0000000000000        3200.0707542132172     
   1175.0000000000000       -3000.0000000000000        3200.0000139700160     
   1200.0000000000000       -3000.0000000000000        3200.0000000000000     
   1225.0000000000000       -3000.0000000000000        3199.9997081345891     
   1250.0000000000000       -3000.0000000000000        3198.5217814118578     
   1275.0000000000000       -3000.0000000000000        3049.7886989315457     
   1300.0000000000000       -3000.0000000000000        3050.0000000000000     
   1325.0000000000000       -3000.0000000000000        3378.2001480080621     
   1350.0000000000002       -3000.0000000000000        3549.9746003802793     
   1375.0000000000000       -3000.0000000000000        3549.9999950898682     
   1400.0000000000000       -3000.0000000000000        3550.0000000000000     
   1425.0000000000000       -3000.0000000000000        3548.4227595389143     
   1450.0000000000000       -3000.0000000000000        3249.2078250446020     
   1475.0000000000000       -3000.0000000000000        3249.9998444377970     
   1500.0000000000000       -3000.0000000000000        3250.0000000000000     
   1524.9999999999998       -3000.0000000000000        3237.2462605417059     
   1550.0000000000000       -3000.0000000000000        3899.5428199371340     
   1575.0000000000000       -3000.0000000000000        3907.1092552812570     
   1600.0000000000000       -3000.0000000000000        3700.0000000000000     
   1625.0000000000000       -3000.0000000000000        3699.9999864366850     
   1650.0000000000000       -3000.0000000000000        3699.9999981147457     
   1675.0000000000000       -3000.0000000000000        3699.9950902212358     
   1700.0000000000000       -3000.0000000000000        3650.0000000000000     
   1725.0000000000000       -3000.0000000000000        3600.0049097822266     
   1750.0000000000000       -3000.0000000000000        3600.0000194212689     
   1775.0000000000000       -3000.0000000000000        3600.0458088598671     
   1800.0000000000000       -3000.0000000000000        3350.0000000000005     
   1825.0000000000000       -3000.0000000000000        3349.9967110718239     
   1850.0000000000000       -3000.0000000000000        3349.9999985381246     
   1875.0000000000000       -3000.0000000000000        3349.9994712403691     
   1900.0000000000000       -3000.0000000000000        3350.0000000000000     
   1925.0000000000002       -3000.0000000000000        3200.1025765942481     
   1950.0000000000000       -3000.0000000000000        3200.0000372637628     
   1975.0000000000000       -3000.0000000000000        3199.9947377227359     
   2000.0000000000000       -3000.0000000000000        3200.0000000000000     
   2025.0000000000000       -3000.0000000000000        3600.0732945496575     
   2050.0000000000000       -3000.0000000000000        3600.0019246232368     
   2075.0000000000000       -3000.0000000000000        3604.9528590307800     
   2100.0000000000000       -3000.0000000000000        4120.0000000000000     
   2125.0000000000000       -3000.0000000000000        4330.0479631103453     
   2150.0000000000000       -3000.0000000000000        4439.9837441531699     
   2175.0000000000000       -3000.0000000000000        4439.9998928912464     
   2200.0000000000000       -3000.0000000000000        4440.0000000000009     
   2225.0000000000000       -3000.0000000000000        4550.2807346899881     
   2250.0000000000000       -3000.0000000000000        4549.9962779173338     
   2275.0000000000000       -3000.0000000000000        4539.9990464230059     
   2300.0000000000000       -3000.0000000000000        3500.0000000000000     
   2325.0000000000000       -3000.0000000000000        3500.0002657426285     
   2350.0000000000000       -3000.0000000000000        3500.0000007062717     
   2375.0000000000000       -3000.0000000000000        3500.0015786855265     
   2400.0000000000000       -3000.0000000000000        3500.0000000000000     
   2425.0000000000000       -3000.0000000000000        3379.9780117474429     
   2450.0000000000000       -3000.0000000000000        3379.9999915802205     
   2474.9999999999995       -3000.0000000000000        3379.9999999983374     
   2500.0000000000000       -3000.0000000000000        3380.0000000000000     
   2525.0000000000000       -3000.0000000000000        3380.0000000000127     
   2550.0000000000000       -3000.0000000000000        3380.0000000651034     
   2575.0000000000000       -3000.0000000000000        3380.0001700167081     
   2600.0000000000000       -3000.0000000000000        3380.0000000000000     
   2625.0000000000000       -3000.0000000000000        3199.5416848977106     
   2650.0000000000000       -3000.0000000000000        3205.4199589273453     
   2675.0000000000000       -3000.0000000000000        3750.7748038629352     
   2700.0000000000005       -3000.0000000000000        3750.0000000000000     
   2725.0000000000000       -3000.0000000000000        3749.9999999526399     
   2750.0000000000000       -3000.0000000000000        3750.0000210494295     
   2775.0000000000000       -3000.0000000000000        3750.0549706313950     
   2800.0000000000000       -3000.0000000000000        3450.0000000000000     
   2825.0000000000000       -3000.0000000000000        3449.9960530485964     
   2850.0000000000000       -3000.0000000000000        3449.9987949060769     
   2875.0000000000000       -3000.0000000000000        3446.8568441721450     
   2900.0000000000000       -3000.0000000000000        3120.0000000000000     
   2925.0000000000000       -3000.0000000000000        3104.6955955240992     
   2950.0000000000000       -3000.0000000000000        3899.4481171688908     
   2975.0000000000000       -3000.0000000000000        3899.9998910342192     
   3000.0000000000000       -3000.0000000000000        3900.0000000000000     
   3025.0000000000000       -3000.0000000000000        3899.9972898928413     
   3049.9999999999995       -3000.0000000000000        3880.0240473580898     
   3075.0000000000000       -3000.0000000000000        3799.9898857422336     
   3100.0000000000000       -3000.0000000000000        3799.9999999999995     
   3125.0000000000000       -3000.0000000000000        3800.0018880453422     
   3150.0000000000000       -3000.0000000000000        3809.5624306069490     
   3175.0000000000000       -3000.0000000000000        3540.0981420008275     
   3200.0000000000000       -3000.0000000000000        3540.0000000000000     
   3225.0000000000000       -3000.0000000000000        3539.9999999934325     
   3250.0000000000000       -3000.0000000000000        3539.9999997840268     
   3275.0000000000005       -3000.0000000000000        3539.9994359899915     
   3300.0000000000000       -3000.0000000000000        3540.0000000000005     
   3325.0000000000000       -3000.0000000000000        3380.1094141742778     
   3350.0000000000000       -3000.0000000000000        3379.9956861795386     
   3375.0000000000000       -3000.0000000000000        3368.6250436898008     
   3400.0000000000000       -3000.0000000000000        3700.0000000000000     
   3425.0000000000000       -3000.0000000000000        3742.9510020776088     
   3450.0000000000000       -3000.0000000000000        4230.1004802400730     
   3475.0000000000000       -3000.0000000000000        4230.0000198701327     
   3500.0000000000000       -3000.0000000000000        4230.0000000000000     
   3525.0000000000000       -3000.0000000000000        4229.5351176613913     
   3550.0000000000000       -3000.0000000000000        4556.7479190586482     
   3575.0000000000000       -3000.0000000000000        4559.9992539969553     
   3600.0000000000000       -3000.0000000000000        4560.0000000000000     
   3624.9999999999995       -3000.0000000000000        4670.2807353898024     
   3650.0000000000000       -3000.0000000000000        4669.9998220737089     
   3675.0000000000000       -3000.0000000000000        4669.2546101001381     
   3700.0000000000000       -3000.0000000000000        3580.0000000000000     
   3725.0000000000000       -3000.0000000000000        3580.0038423181832     
   3750.0000000000000       -3000.0000000000000        3580.0000014713073     
   3775.0000000000000       -3000.0000000000000        3580.0000000002910     
   3800.0000000000000       -3000.0000000000000        3580.0000000000005     
   3825.0000000000000       -3000.0000000000000        3579.9999999943134     
   3850.0000000000005       -3000.0000000000000        3579.9999711955425     
   3875.0000000000000       -3000.0000000000000        3579.9247771639270     
   3900.0000000000000       -3000.0000000000000        3470.0000000000000     
   3925.0000000000000       -3000.0000000000000        3470.0003877568815     
   3950.0000000000000       -3000.0000000000000        3470.0000001484818     
   3975.0000000000000       -3000.0000000000000        3470.0000000042969     
   4000.0000000000000       -3000.0000000000000        3469.9999999999995     
   4025.0000000000000       -3000.0000000000000        3469.9358302302339     
   4050.0000000000000       -3000.0000000000000        3293.7476415485171     
   4075.0000000000000       -3000.0000000000000        3299.9988237195184     
   4100.0000000000000       -3000.0000000000000        3300.0000000000000     
   4125.0000000000000       -3000.0000000000000        3527.8093149261367     
   4150.0000000000000       -3000.0000000000000        3529.9991608859218     
   4175.0000000000000       -3000.0000000000000        3529.9993386580072     
   4200.0000000000000       -3000.0000000000000        3530.0000000000000     
   4225.0000000000000       -3000.0000000000000        4231.7864982934570     
   4250.0000000000000       -3000.0000000000000        4230.0006840890028     
   4275.0000000000000       -3000.0000000000000        4230.0000001350709     
   4300.0000000000000       -3000.0000000000000        4230.0000000000000     
   4325.0000000000000       -3000.0000000000000        4230.0000006181326     
   4350.0000000000000       -3000.0000000000000        4230.0031306714991     
   4375.0000000000000       -3000.0000000000000        4238.1757479991638     
   4400.0000000000000       -3000.0000000000000        4000.0000000000005     
   4425.0000000000000       -3000.0000000000000        3999.9999843922669     
   4450.0000000000000       -3000.0000000000000        3999.9999476222861     
   4475.0000000000000       -3000.0000000000000        3999.8632312071395     
   4500.0000000000000       -3000.0000000000000        3800.0000000000005     
   4525.0000000000000       -3000.0000000000000        3800.0007050125118     
   4550.0000000000000       -3000.0000000000000        3800.0000002699653     
   4575.0000000000000       -3000.0000000000000        3800.0000000000509     
   4600.0000000000000       -3000.0000000000000        3800.0000000000000     
   4625.0000000000000       -3000.0000000000000        3800.0000558799838     
   4650.0000000000000       -3000.0000000000000        3800.2830168528671     
   4675.0000000000000       -3000.0000000000000        4207.8484553818453     
   4700.0000000000000       -3000.0000000000000        4200.0000000000009     
   4725.0000000000000       -3000.0000000000000        4200.0029041622611     
   4750.0000000000000       -3000.0000000000000        4214.7114317027981     
   4775.0000000000000       -3000.0000000000000        3800.1509876935788     
   4800.0000000000000       -3000.0000000000000        3800.0000000000000     
   4825.0000000000009       -3000.0000000000000        3799.9999999921893     
   4850.0000000000000       -3000.0000000000000        3800.0000112803618     
   4875.0000000000000       -3000.0000000000000        3800.0294586725868     
   4900.0000000000000       -3000.0000000000000        4100.0000000000000     
   4925.0000000000000       -3000.0000000000000        4399.9704370539530     
   4949.9999999999991       -3000.0000000000000        4399.4718720824867     
   4975.0000000000000       -3000.0000000000000        4598.9485063570492     
   5000.0000000000000       -3000.0000000000000        4600.0000000000009     
   5025.0000000000000       -3000.0000000000000        4600.0000010729145     
   5050.0000000000000       -3000.0000000000000        4600.0050799239807     
   5075.0000000000000       -3000.0000000000000        4634.3599704011986     
   5100.0000000000000       -3000.0000000000000        4699.9999999999991     
   5125.0000000000000       -3000.0000000000000        4700.0000006016880     
   5150.0000000000000       -3000.0000000000000        4700.0122504529927     
   5175.0000000000000       -3000.0000000000000        4731.9920573879936     
   5200.0000000000000       -3000.0000000000000        3800.0000000000000     
   5225.0000000000000       -3000.0000000000000        3799.9999389667205     
   5250.0000000000000       -3000.0000000000000        3799.9999999669376     
   5275.0000000000000       -3000.0000000000000        3799.9999746911853     
   5300.0000000000000       -3000.0000000000000        3800.0000000000000     
   5325.0000000000000       -3000.0000000000000        3700.9524717714094     
   5350.0000000000000       -3000.0000000000000        3700.0003654777715     
   5375.0000000000000       -3000.0000000000000        3700.0019734288949     
   5400.0000000000009       -3000.0000000000000        3700.0000000000005     
   5425.0000000000000       -3000.0000000000000        3549.9725150443633     
   5450.0000000000000       -3000.0000000000000        3550.0018130859276     
   5475.0000000000000       -3000.0000000000000        3554.7623588542174     
   5500.0000000000000       -3000.0000000000000        4050.0000000000000     
   5524.9999999999991       -3000.0000000000000        4049.9998734559695     
   5550.0000000000000       -3000.0000000000000        4050.0000000600489     
   5575.0000000000000       -3000.0000000000000        4050.0002833612893     
   5600.0000000000000       -3000.0000000000000        4050.0000000000000     
   5625.0000000000000       -3000.0000000000000        3749.2343578742339     
   5650.0000000000000       -3000.0000000000000        3749.9997068189996     
   5675.0000000000000       -3000.0000000000000        3749.9999999421134     
   5700.0000000000000       -3000.0000000000000        3750.0000000000000     
   5725.0000000000000       -3000.0000000000000        3749.9999999999968     
   5750.0000000000000       -3000.0000000000000        3749.9999999831221     
   5775.0000000000000       -3000.0000000000000        3749.9999559204107     
   5800.0000000000000       -3000.0000000000000        3750.0000000000000     
   5825.0000000000000       -3000.0000000000000        4423.1053747802471     
   5850.0000000000000       -3000.0000000000000        4400.0088475498851     
   5875.0000000000000       -3000.0000000000000        4400.0000017468965     
   5900.0000000000000       -3000.0000000000000        4400.0000000000000     
   5925.0000000000000       -3000.0000000000000        4400.0000005375059     
   5950.0000000000000       -3000.0000000000000        4400.0027223230427     
   5975.0000000000009       -3000.0000000000000        4407.1093460862257     
   6000.0000000000000       -3000.0000000000000        4200.0000000000000     
   6025.0000000000000       -3000.0000000000000        4199.9999724670533     
   6050.0000000000000       -3000.0000000000000        4199.9292457815900     
   6075.0000000000000       -3000.0000000000000        4098.0378861544868     
   6099.9999999999991       -3000.0000000000000        4100.0000000000000     
   6125.0000000000000       -3000.0000000000000        4100.0000001304616     
   6150.0000000000000       -3000.0000000000000        4100.0000000000500     
   6175.0000000000000       -3000.0000000000000        4100.0000000000000     
   6200.0000000000000       -3000.0000000000000        4100.0000000000000     
   6225.0000000000000       -3000.0000000000000        4100.0000000000009     
   6250.0000000000000       -3000.0000000000000        4100.0000000000000     
   6275.0000000000000       -3000.0000000000000        4100.0000000000000     
   6300.0000000000000       -3000.0000000000000        4100.0000000000000     
   6325.0000000000000       -3000.0000000000000        4099.9999999999991     
   6350.0000000000000       -3000.0000000000000        4100.0000000000000     
   6375.0000000000000       -3000.0000000000000        4100.0000000000009     
   6400.0000000000000       -3000.0000000000000        4100.0000000000000     
   6425.0000000000000       -3000.0000000000000        4100.0000000000000     
   6450.0000000000000       -3000.0000000000000        4100.0000000000009     
   6475.0000000000000       -3000.0000000000000        4100.0000000000000     
   6500.0000000000000       -3000.0000000000000        4099.9999999999991     
   6525.0000000000000       -3000.0000000000000        4100.0000000000000     
   6550.0000000000009       -3000.0000000000000        4100.0000000000000     
   6575.0000000000000       -3000.0000000000000        4100.0000000000009     
   6600.0000000000000       -3000.0000000000000        4100.0000000000000     
   6625.0000000000000       -3000.0000000000000        4100.0000000000000     
   6650.0000000000000       -3000.0000000000000        4100.0000000000000     
   6674.9999999999991       -3000.0000000000000        4100.0000000000009     
   6700.0000000000000       -3000.0000000000000        4100.0000000000000     
   6725.0000000000000       -3000.0000000000000        4100.0000000000000     
   6750.0000000000000       -3000.0000000000000        4100.0000000000000     
   6775.0000000000000       -3000.0000000000000        4100.0000000000000     
   6800.0000000000000       -3000.0000000000000        4100.0000000000000     
   6825.0000000000000       -3000.0000000000000        4100.0000000000000     
   6850.0000000000000       -3000.0000000000000        4100.0000000000000     
   6875.0000000000000       -3000.0000000000000        4100.0000000000009     
   6900.0000000000000       -3000.0000000000000        4100.0000000000000     
   6925.0000000000000       -3000.0000000000000        4099.9999999999009     
   6950.0000000000000       -3000.0000000000000        4099.9999994962400     
   6975.0000000000000       -3000.0000000000000        4099.9986844287459     
   7000.0000000000000       -3000.0000000000000        4100.0000000000000     
   7025.0000000000000       -3000.0000000000000        4200.0183235437980     
   7050.0000000000000       -3000.0000000000000        4200.0000070164833     
   7075.0000000000000       -3000.0000000000000        4200.0000000013861     
   7100.0000000000000       -3000.0000000000000        4200.0000000000000     
   7125.0000000000009       -3000.0000000000000        4200.0000000000000     
   7150.0000000000000       -3000.0000000000000        4200.0000000000000     
   7175.0000000000000       -3000.0000000000000        4200.0000000000000     
   7200.0000000000000       -3000.0000000000000        4200.0000000000000     
   7225.0000000000000       -3000.0000000000000        4200.0000000000036     
   7249.9999999999991       -3000.0000000000000        4200.0000000193832     
   7275.0000000000000       -3000.0000000000000        4200.0000506176211     
   7300.0000000000000       -3000.0000000000000        4200.0000000000000     
   7325.0000000000000       -3000.0000000000000        4398.0950564574823     
   7350.0000000000000       -3000.0000000000000        4399.9992705557397     
   7375.0000000000000       -3000.0000000000000        4399.9999998559761     
   7400.0000000000000       -3000.0000000000000        4400.0000000000000     
   7425.0000000000000       -3000.0000000000000        4400.0000000000000     
   7450.0000000000000       -3000.0000000000000        4400.0000000000000     
   7475.0000000000000       -3000.0000000000000        4399.9999999999991     
   7500.0000000000000       -3000.0000000000000        4400.0000000000009     
   7525.0000000000000       -3000.0000000000000        4400.0000000090049     
   7550.0000000000000       -3000.0000000000000        4400.0000456071402     
   7575.0000000000000       -3000.0000000000000        4400.1191030346890     
   7600.0000000000000       -3000.0000000000000        3749.9999999999995     
   7625.0000000000000       -3000.0000000000000        3749.9914487868459     
   7650.0000000000000       -3000.0000000000000        3749.9999967255549     
   7675.0000000000000       -3000.0000000000000        3749.9999999993543     
   7700.0000000000009       -3000.0000000000000        3750.0000000000005     
   7725.0000000000000       -3000.0000000000000        3749.9999999999786     
   7750.0000000000000       -3000.0000000000000        3749.9999998914955     
   7775.0000000000000       -3000.0000000000000        3749.9997166387011     
   7800.0000000000000       -3000.0000000000000        3750.0000000000009     
   7824.9999999999991       -3000.0000000000000        4050.7656421257670     
   7850.0000000000000       -3000.0000000000000        4050.0002931810013     
   7875.0000000000000       -3000.0000000000000        4050.0000000578866     
   7900.0000000000000       -3000.0000000000000        4049.9999999999995     
   7925.0000000000000       -3000.0000000000000        4050.0000013437671     
   7950.0000000000000       -3000.0000000000000        4050.0068058076045     
   7975.0000000000000       -3000.0000000000000        4067.7733652155757     
   8000.0000000000000       -3000.0000000000000        3550.0000000000000     
   8025.0000000000000       -3000.0000000000000        3549.9999660926242     
   8050.0000000000000       -3000.0000000000000        3549.9999999870174     
   8075.0000000000000       -3000.0000000000000        3550.0000000010068     
   8100.0000000000000       -3000.0000000000000        3550.0000000000000     
   8125.0000000000000       -3000.0000000000000        3549.9848286135393     
   8150.0000000000000       -3000.0000000000000        3670.0360710371310     
   8175.0000000000000       -3000.0000000000000        3699.9959348392504     
   8200.0000000000000       -3000.0000000000000        3700.0000000000005     
   8225.0000000000000       -3000.0000000000000        3700.0000000002710     
   8250.0000000000000       -3000.0000000000000        3700.0000000000014     
   8275.0000000000000       -3000.0000000000000        3700.0000000006739     
   8300.0000000000000       -3000.0000000000000        3700.0000000000000     
   8325.0000000000000       -3000.0000000000000        3699.9898857423605     
   8350.0000000000000       -3000.0000000000000        3780.0240473580843     
   8375.0000000000000       -3000.0000000000000        3799.9972898928345     
   8400.0000000000000       -3000.0000000000000        3800.0000000000005     
   8425.0000000000000       -3000.0000000000000        3800.0000000001810     
   8450.0000000000000       -3000.0000000000000        3800.0000000000014     
   8475.0000000000000       -3000.0000000000000        3800.0000000004352     
   8500.0000000000000       -3000.0000000000000        3800.0000000000000     
   8525.0000000000000       -3000.0000000000000        3799.9934644607597     
   8550.0000000000000       -3000.0000000000000        3766.8992786682566     
   8575.0000000000000       -3000.0000000000000        4699.6602776894470     
   8600.0000000000000       -3000.0000000000000        4700.0000000000009     
   8625.0000000000000       -3000.0000000000000        4700.0000000225891     
   8650.0000000000000       -3000.0000000000000        4699.9999999993133     
   8675.0000000000000       -3000.0000000000000        4699.9999981829096     
   8700.0000000000000       -3000.0000000000000        4700.0000000000009     
   8725.0000000000000       -3000.0000000000000        4634.3599704011995     
   8750.0000000000000       -3000.0000000000000        4600.0050799239534     
   8775.0000000000000       -3000.0000000000000        4600.0000010030017     
   8800.0000000000000       -3000.0000000000000        4600.0000000000009     
   8825.0000000000000       -3000.0000000000000        4599.9999999992588     
   8850.0000000000000       -3000.0000000000000        4599.9999962398779     
   8875.0000000000000       -3000.0000000000000        4599.9901804384390     
   8900.0000000000000       -3000.0000000000000        4500.0000000000000     
   8925.0000000000000       -3000.0000000000000        4400.0705051033701     
   8950.0000000000000       -3000.0000000000000        3919.8557196116208     
   8975.0000000000000       -3000.0000000000000        3800.0162606437443     
   9000.0000000000000       -3000.0000000000000        3800.0000000000000     
   9025.0000000000000       -3000.0000000000000        3800.0000002869683     
   9050.0000000000000       -3000.0000000000000        3800.0014588885219     
   9075.0000000000000       -3000.0000000000000        3803.8098870850376     
   9100.0000000000000       -3000.0000000000000        4200.0000000000000     
   9125.0000000000000       -3000.0000000000000        4199.9998998397996     
   9150.0000000000000       -3000.0000000000000        4200.0054447519933     
   9175.0000000000000       -3000.0000000000000        4214.2190699875164     
   9200.0000000000000       -3000.0000000000000        3800.0000000000000     
   0.0000000000000000       -2975.0000000000000        3380.0002334925448     
   25.000000000000000       -2975.0000000000000        3379.9999955184489     
   50.000000000000000       -2975.0000000000000        3379.9704322591438     
   75.000000000000000       -2975.0000000000000        3369.9898568360509     
   100.00000000000000       -2975.0000000000000        3749.3698153441001     
   125.00000000000000       -2975.0000000000000        3573.1376284394419     
   150.00000000000000       -2975.0000000000000        3450.4401712729887     
   175.00000000000000       -2975.0000000000000        3450.0010126767042     
   200.00000000000000       -2975.0000000000000        3450.8465507323899     
   225.00000000000000       -2975.0000000000000        3135.4420026264152     